
    -----------------------------------------------------------------------
          Psi4: An Open-Source Ab Initio Electronic Structure Package
                               Psi4 1.6a1.dev25 

                         Git: Rev {composite-jk} 5ff3cb2 dirty


    D. G. A. Smith, L. A. Burns, A. C. Simmonett, R. M. Parrish,
    M. C. Schieber, R. Galvelis, P. Kraus, H. Kruse, R. Di Remigio,
    A. Alenaizan, A. M. James, S. Lehtola, J. P. Misiewicz, M. Scheurer,
    R. A. Shaw, J. B. Schriber, Y. Xie, Z. L. Glick, D. A. Sirianni,
    J. S. O'Brien, J. M. Waldrop, A. Kumar, E. G. Hohenstein,
    B. P. Pritchard, B. R. Brooks, H. F. Schaefer III, A. Yu. Sokolov,
    K. Patkowski, A. E. DePrince III, U. Bozkaya, R. A. King,
    F. A. Evangelista, J. M. Turney, T. D. Crawford, C. D. Sherrill,
    J. Chem. Phys. 152(18) 184108 (2020). https://doi.org/10.1063/5.0006002

                            Additional Code Authors
    E. T. Seidl, C. L. Janssen, E. F. Valeev, M. L. Leininger,
    J. F. Gonthier, R. M. Richard, H. R. McAlexander, M. Saitow, X. Wang,
    P. Verma, M. H. Lechner, and A. Jiang

             Previous Authors, Complete List of Code Contributors,
                       and Citations for Specific Modules
    https://github.com/psi4/psi4/blob/master/codemeta.json
    https://github.com/psi4/psi4/graphs/contributors
    http://psicode.org/psi4manual/master/introduction.html#citing-psifour

    -----------------------------------------------------------------------


    Psi4 started on: Wednesday, 05 January 2022 12:32PM

    Process ID: 17596
    Host:       ds10
    PSIDATADIR: /theoryfs2/ds/jiang/p4dev/psi4/objdir-alexander/stage/share/psi4
    Memory:     500.0 MiB
    Threads:    6
    
  ==> Input File <==

--------------------------------------------------------------------------
#! RKS Direct DF J Algorithm test for benzene

ref_energy = -232.33331405755291 # TEST (Direct SCF)

molecule mol {
    0 1
    C    -1.0478252   -1.4216736    0.0000000
    C    -1.4545034   -0.8554459    1.2062048
    C    -1.4545034   -0.8554459   -1.2062048
    C    -2.2667970    0.2771610    1.2069539
    C    -2.6714781    0.8450211    0.0000000
    C    -2.2667970    0.2771610   -1.2069539
    H    -1.1338534   -1.2920593   -2.1423150
    H    -2.5824943    0.7163066   -2.1437977
    H    -3.3030422    1.7232700    0.0000000
    H    -2.5824943    0.7163066    2.1437977
    H    -1.1338534   -1.2920593    2.1423150
    H    -0.4060253   -2.2919049    0.0000000
    symmetry c1
    no_reorient
    no_com
}

set {
    scf_type composite
    j_type direct_df
    k_type linK
    basis cc-pVTZ
    ints_tolerance 1.0e-12
    e_convergence 1.0e-6
    screening density
    incfock true
    incfock_full_fock_every 4
    linK_ints_tolerance 1.0e-12
}

linK_energy = energy('b3lyp')
psi4.compare_values(ref_energy, linK_energy, 4, "B3LYP Energy (using LinK algo)")
--------------------------------------------------------------------------

Scratch directory: /scratch/jiang/

*** tstart() called on ds10
*** at Wed Jan  5 12:32:41 2022

   => Loading Basis Set <=

    Name: CC-PVTZ
    Role: ORBITAL
    Keyword: BASIS
    atoms 1-6  entry C          line   186 file /theoryfs2/ds/jiang/p4dev/psi4/objdir-alexander/stage/share/psi4/basis/cc-pvtz.gbs 
    atoms 7-12 entry H          line    23 file /theoryfs2/ds/jiang/p4dev/psi4/objdir-alexander/stage/share/psi4/basis/cc-pvtz.gbs 


         ---------------------------------------------------------
                                   SCF
               by Justin Turney, Rob Parrish, Andy Simmonett
                          and Daniel G. A. Smith
                              RKS Reference
                        6 Threads,    500 MiB Core
         ---------------------------------------------------------

  ==> Geometry <==

    Molecular point group: c1
    Full point group: Cs

    Geometry (in Angstrom), charge = 0, multiplicity = 1:

       Center              X                  Y                   Z               Mass       
    ------------   -----------------  -----------------  -----------------  -----------------
         C           -1.047825200000    -1.421673600000     0.000000000000    12.000000000000
         C           -1.454503400000    -0.855445900000     1.206204800000    12.000000000000
         C           -1.454503400000    -0.855445900000    -1.206204800000    12.000000000000
         C           -2.266797000000     0.277161000000     1.206953900000    12.000000000000
         C           -2.671478100000     0.845021100000     0.000000000000    12.000000000000
         C           -2.266797000000     0.277161000000    -1.206953900000    12.000000000000
         H           -1.133853400000    -1.292059300000    -2.142315000000     1.007825032230
         H           -2.582494300000     0.716306600000    -2.143797700000     1.007825032230
         H           -3.303042200000     1.723270000000     0.000000000000     1.007825032230
         H           -2.582494300000     0.716306600000     2.143797700000     1.007825032230
         H           -1.133853400000    -1.292059300000     2.142315000000     1.007825032230
         H           -0.406025300000    -2.291904900000     0.000000000000     1.007825032230

  Running in c1 symmetry.

  Rotational constants: A =      0.10996  B =      0.04618  C =      0.04339 [cm^-1]
  Rotational constants: A =   3296.45833  B =   1384.51424  C =   1300.84014 [MHz]
  Nuclear repulsion =  203.710931360278892

  Charge       = 0
  Multiplicity = 1
  Electrons    = 42
  Nalpha       = 21
  Nbeta        = 21

  ==> Algorithm <==

  SCF Algorithm Type is COMPOSITE.
  DIIS enabled.
  MOM disabled.
  Fractional occupation disabled.
  Guess Type is SAD.
  Energy threshold   = 1.00e-06
  Density threshold  = 1.00e-06
  Integral threshold = 1.00e-12

  ==> Primary Basis <==

  Basis Set: CC-PVTZ
    Blend: CC-PVTZ
    Number of shells: 96
    Number of basis functions: 264
    Number of Cartesian functions: 300
    Spherical Harmonics?: true
    Max angular momentum: 3

  ==> DFT Potential <==

   => LibXC <=

    Version 5.1.5
    S. Lehtola, C. Steigemann, M. J. Oliveira, and M. A. Marques, SoftwareX 7, 1 (2018) (10.1016/j.softx.2017.11.002)

   => Composite Functional: B3LYP <= 

    B3LYP Hyb-GGA Exchange-Correlation Functional

    P. J. Stephens, F. J. Devlin, C. F. Chabalowski, and M. J. Frisch, J. Phys. Chem. 98, 11623 (1994) (10.1021/j100096a001)

    Deriv               =              1
    GGA                 =           TRUE
    Meta                =          FALSE

    Exchange Hybrid     =           TRUE
    MP2 Hybrid          =          FALSE

   => Exchange Functionals <=

    0.0800   Slater exchange
    0.7200         Becke 88

   => Exact (HF) Exchange <=

    0.2000               HF 

   => Correlation Functionals <=

    0.1900   Vosko, Wilk & Nusair (VWN5_RPA)
    0.8100   Lee, Yang & Parr

   => LibXC Density Thresholds  <==

    XC_HYB_GGA_XC_B3LYP:  1.00E-15 

   => Molecular Quadrature <=

    Radial Scheme          =       TREUTLER
    Pruning Scheme         =           NONE
    Nuclear Scheme         =       TREUTLER

    BS radius alpha        =              1
    Pruning alpha          =              1
    Radial Points          =             75
    Spherical Points       =            302
    Total Points           =         254624
    Total Blocks           =           2003
    Max Points             =            256
    Max Functions          =            264
    Weights Tolerance      =       1.00E-15

   => Loading Basis Set <=

    Name: (CC-PVTZ AUX)
    Role: JKFIT
    Keyword: DF_BASIS_SCF
    atoms 1-6  entry C          line   125 file /theoryfs2/ds/jiang/p4dev/psi4/objdir-alexander/stage/share/psi4/basis/cc-pvtz-jkfit.gbs 
    atoms 7-12 entry H          line    51 file /theoryfs2/ds/jiang/p4dev/psi4/objdir-alexander/stage/share/psi4/basis/cc-pvtz-jkfit.gbs 

  ==> Integral Setup <==

  ==> CompositeJK: Mix/Match JK Builds <==

    J tasked:                  Yes
    J Algorithm:         DIRECT_DF
    K tasked:                  Yes
    K Algorithm:              LINK
    Integrals threads:           6
    Screening Type:        DENSITY
    Screening Cutoff:        1E-12
  Cached 20.0% of DFT collocation blocks in 0.306 [GiB].

  Minimum eigenvalue in the overlap matrix is 3.7592595820E-05.
  Reciprocal condition number of the overlap matrix is 4.6398212530E-06.
    Using symmetric orthogonalization.

  ==> Pre-Iterations <==

  SCF Guess: Superposition of Atomic Densities via on-the-fly atomic UHF (no occupation information).

   -------------------------
    Irrep   Nso     Nmo    
   -------------------------
     A        264     264 
   -------------------------
    Total     264     264
   -------------------------

  ==> Iterations <==

                        Total Energy        Delta E     RMS |[F,P]|

   @RKS iter SAD:  -231.83025753211271   -2.31830e+02   0.00000e+00 
   @RKS iter   1:  -231.83555414432584   -5.29661e-03   3.65098e-03 DIIS
   @RKS iter   2:  -231.53471490806535    3.00839e-01   4.63419e-03 DIIS
   @RKS iter   3:  -232.32902699812416   -7.94312e-01   3.73665e-04 DIIS
   @RKS iter   4:  -232.33321002285146   -4.18302e-03   7.47729e-05 DIIS
   @RKS iter   5:  -232.33338619673799   -1.76174e-04   7.58047e-06 DIIS
   @RKS iter   6:  -232.33338653952288   -3.42785e-07   6.99708e-06 DIIS
   @RKS iter   7:  -232.33338847289005   -1.93337e-06   6.81718e-07 DIIS
   @RKS iter   8:  -232.33338836539212    1.07498e-07   3.10887e-07 DIIS
  Energy and wave function converged.


  ==> Post-Iterations <==

   Electrons on quadrature grid:
      Ntotal   =   42.0000093833 ; deviation = 9.383e-06 

    Orbital Energies [Eh]
    ---------------------

    Doubly Occupied:                                                      

       1A    -10.179330     2A    -10.179062     3A    -10.179020  
       4A    -10.178474     5A    -10.178463     6A    -10.178171  
       7A     -0.856472     8A     -0.748540     9A     -0.748358  
      10A     -0.605605    11A     -0.605527    12A     -0.527216  
      13A     -0.464485    14A     -0.449859    15A     -0.425106  
      16A     -0.424870    17A     -0.371377    18A     -0.348028  
      19A     -0.347794    20A     -0.258028    21A     -0.257912  

    Virtual:                                                              

      22A     -0.012724    23A     -0.012705    24A      0.039672  
      25A      0.070865    26A      0.070923    27A      0.101577  
      28A      0.101661    29A      0.127316    30A      0.142888  
      31A      0.231232    32A      0.231240    33A      0.257241  
      34A      0.261220    35A      0.264743    36A      0.264880  
      37A      0.279016    38A      0.321928    39A      0.321986  
      40A      0.354308    41A      0.362787    42A      0.362932  
      43A      0.387726    44A      0.398021    45A      0.398235  
      46A      0.404718    47A      0.404783    48A      0.435457  
      49A      0.435542    50A      0.446862    51A      0.479786  
      52A      0.482419    53A      0.482557    54A      0.495609  
      55A      0.497559    56A      0.546467    57A      0.547460  
      58A      0.547574    59A      0.573835    60A      0.573932  
      61A      0.649930    62A      0.674176    63A      0.674461  
      64A      0.707600    65A      0.727891    66A      0.728095  
      67A      0.745392    68A      0.761131    69A      0.761496  
      70A      0.797822    71A      0.860875    72A      0.860947  
      73A      0.897759    74A      0.926184    75A      0.961500  
      76A      1.001640    77A      1.002053    78A      1.018516  
      79A      1.018546    80A      1.021109    81A      1.088516  
      82A      1.088525    83A      1.098150    84A      1.108067  
      85A      1.108327    86A      1.168952    87A      1.169004  
      88A      1.250028    89A      1.250387    90A      1.263489  
      91A      1.265854    92A      1.268068    93A      1.268919  
      94A      1.284441    95A      1.284551    96A      1.369989  
      97A      1.370596    98A      1.378686    99A      1.378737  
     100A      1.386568   101A      1.405652   102A      1.406067  
     103A      1.468830   104A      1.484915   105A      1.484933  
     106A      1.524515   107A      1.580342   108A      1.666315  
     109A      1.856876   110A      1.927211   111A      1.927750  
     112A      1.963115   113A      1.969222   114A      1.986416  
     115A      1.986972   116A      2.064469   117A      2.091604  
     118A      2.091743   119A      2.142847   120A      2.160436  
     121A      2.161467   122A      2.175176   123A      2.175283  
     124A      2.289803   125A      2.353555   126A      2.412281  
     127A      2.412334   128A      2.456378   129A      2.457257  
     130A      2.472275   131A      2.496252   132A      2.565728  
     133A      2.566776   134A      2.607540   135A      2.633018  
     136A      2.633370   137A      2.682178   138A      2.682282  
     139A      2.684270   140A      2.698213   141A      2.698213  
     142A      2.749800   143A      2.750259   144A      2.751363  
     145A      2.785950   146A      2.828122   147A      2.828726  
     148A      2.901607   149A      2.905143   150A      2.905320  
     151A      2.965628   152A      2.965874   153A      2.979917  
     154A      2.980035   155A      3.011735   156A      3.037597  
     157A      3.049722   158A      3.050653   159A      3.054345  
     160A      3.054814   161A      3.057673   162A      3.058033  
     163A      3.084611   164A      3.110796   165A      3.119060  
     166A      3.119310   167A      3.136290   168A      3.168785  
     169A      3.283955   170A      3.300151   171A      3.300400  
     172A      3.313014   173A      3.328459   174A      3.328468  
     175A      3.362599   176A      3.362740   177A      3.380948  
     178A      3.380978   179A      3.392715   180A      3.393321  
     181A      3.413050   182A      3.557607   183A      3.558235  
     184A      3.574191   185A      3.602018   186A      3.728827  
     187A      3.751466   188A      3.760965   189A      3.762200  
     190A      3.768273   191A      3.770114   192A      3.770450  
     193A      3.775674   194A      3.789095   195A      3.791554  
     196A      3.791696   197A      3.836634   198A      3.840765  
     199A      3.841087   200A      3.882806   201A      3.882899  
     202A      4.001723   203A      4.002241   204A      4.016447  
     205A      4.080146   206A      4.080206   207A      4.087747  
     208A      4.091966   209A      4.097187   210A      4.097606  
     211A      4.170123   212A      4.187781   213A      4.208089  
     214A      4.209092   215A      4.228659   216A      4.312824  
     217A      4.312935   218A      4.315867   219A      4.315885  
     220A      4.317364   221A      4.317976   222A      4.352355  
     223A      4.352408   224A      4.493467   225A      4.533522  
     226A      4.534352   227A      4.658360   228A      4.662642  
     229A      4.663624   230A      4.710429   231A      4.756568  
     232A      4.756579   233A      4.771196   234A      4.771632  
     235A      4.806622   236A      4.906264   237A      4.947562  
     238A      5.016478   239A      5.026889   240A      5.027566  
     241A      5.032688   242A      5.053998   243A      5.054643  
     244A      5.156971   245A      5.158065   246A      5.350299  
     247A      5.350327   248A      5.458716   249A      5.675459  
     250A      5.677216   251A      5.706865   252A      5.867545  
     253A      5.867700   254A      5.947481   255A      6.116007  
     256A      6.117114   257A      6.439481   258A      6.925240  
     259A      8.904400   260A     12.359168   261A     12.360812  
     262A     12.863093   263A     12.864295   264A     15.402455  

    Final Occupation by Irrep:
              A 
    DOCC [    21 ]

  @RKS Final Energy:  -232.33338836539212

   => Energetics <=

    Nuclear Repulsion Energy =            203.7109313602788916
    One-Electron Energy =                -714.7993924274746860
    Two-Electron Energy =                 306.9306231651541452
    DFT Exchange-Correlation Energy =     -28.1755504633504898
    Empirical Dispersion Energy =           0.0000000000000000
    VV10 Nonlocal Energy =                  0.0000000000000000
    Total Energy =                       -232.3333883653921248

Computation Completed


Properties will be evaluated at   0.000000,   0.000000,   0.000000 [a0]

Properties computed using the SCF density matrix

  Nuclear Dipole Moment: [e a0]
     X:  -147.6125      Y:   -22.9025      Z:     0.0000

  Electronic Dipole Moment: [e a0]
     X:   147.6175      Y:    22.9057      Z:    -0.0000

  Dipole Moment: [e a0]
     X:     0.0049      Y:     0.0032      Z:    -0.0000     Total:     0.0059

  Dipole Moment: [D]
     X:     0.0125      Y:     0.0080      Z:    -0.0000     Total:     0.0149


*** tstop() called on ds10 at Wed Jan  5 12:33:39 2022
Module time:
	user time   =     344.98 seconds =       5.75 minutes
	system time =       0.71 seconds =       0.01 minutes
	total time  =         58 seconds =       0.97 minutes
Total time:
	user time   =     344.98 seconds =       5.75 minutes
	system time =       0.71 seconds =       0.01 minutes
	total time  =         58 seconds =       0.97 minutes
    B3LYP Energy (using LinK algo)........................................................PASSED

    Psi4 stopped on: Wednesday, 05 January 2022 12:33PM
    Psi4 wall time for execution: 0:00:58.26

*** Psi4 exiting successfully. Buy a developer a beer!
